/*--------------------------------*- C++ -*----------------------------------*\
| =========                 |                                                 |
| \\      /  F ield         | OpenFOAM: The Open Source CFD Toolbox           |
|  \\    /   O peration     | Version:  v2012                                 |
|   \\  /    A nd           | Website:  www.openfoam.com                      |
|    \\/     M anipulation  |                                                 |
\*---------------------------------------------------------------------------*/
FoamFile
{
    version     2.0;
    format      ascii;
    class       volScalarField;
    object      omega;
}
// * * * * * * * * * * * * * * * * * * * * * * * * * * * * * * * * * * * * * //

dimensions      [0 0 -1 0 0 0 0];

internalField   uniform 44.73816; 

boundaryField
{
    inlet
    {
        type            fixedValue;
        value           uniform 0.00245;
    }

    open
    {
        type            omegaWallFunction;
        value           uniform 1;
    }

    symmetry
    {
        type            symmetry;
    }
    
    outlet
    {
        type            zeroGradient;
    }

    airfoil_wing
    {
        type            omegaWallFunction;
        value           uniform 1;
    }
}

// ************************************************************************* //
